Materials Id,Formula,Spacegroup,Formation Energy (eV),E Above Hull (eV),Band Gap (eV),Volume,Nsites,Density (gm/cc),Crystal System
mp-1079615,Ba2UCdO6,Fm3m,-3.121,0,1.884,167.781,10,7.137,cubic
mp-1205836,Ba2LuMoO6,Fm3m,-3.123,0,0,148.883,10,7.155,cubic
mp-1205541,NaScTl2F6,Fm3m,-3.173,0,4.764,167.563,10,5.854,cubic
mp-558194,NaLaMgWO6,C2/m,-2.898,0,3.497,250.006,20,6.191,monoclinic
mp-1206435,Ba2DyTaO6,Fm3m,-3.591,0,3.384,155.248,10,7.638,cubic
mp-1205575,Sr2ScOsO6,Fm3m,-2.904,0,0,132.62,10,6.341,cubic
mp-1091394,Ba2NaIO6,Fm3m,-2.22,0,2.242,151.7,10,5.698,cubic
mp-1206877,Lu3PbC,Pm3m,-0.568,0,0,109.687,5,11.265,cubic
mp-1210016,NaNdMgWO6,P21,-2.876,0,3.788,246.224,20,6.358,monoclinic
mp-1206121,DyRu3C,Pm3m,-0.215,0,0,72.054,5,11.009,cubic
mp-12451,LiLa2OsO6,P21/c,-2.886,0,0.35,257.088,20,7.376,monoclinic
mp-1114429,Rb2LiScCl6,Fm3m,-2.389,0,3.728,267.835,10,2.7,cubic
mp-1205825,Ba2MgMoO6,Fm3m,-2.878,0,2.264,138.462,10,5.887,cubic
mp-1211106,LiPr2RuO6,P21/c,-2.801,0,0.343,250.435,20,6.443,monoclinic
mp-1206516,Lu3InC,Pm3m,-0.573,0,0.062,109.774,5,9.859,cubic
mp-1209462,Rb3NaRe2O9,P63/mmc,-2.241,0,1.783,495.704,30,5.332,hexagonal
mp-1213363,EuNpO3,Pnma,-3.427,0,0,315.581,20,9.197,orthorhombic
mp-1190059,EuHfS3,Pnma,-2.204,0,0,461.447,20,6.141,orthorhombic
mp-1214509,Ba3ZrIr2O9,P63/mmc,-2.587,0,0,436.192,30,7.855,hexagonal
mp-1212340,Ho2MnNiO6,P21/c,-2.836,0,1.88,223.215,20,8.027,monoclinic
mp-1079169,Ba2NdIrO6,Fm3m,-2.702,0,0,158.598,10,7.404,cubic
mp-1205585,Ba2HoUO6,Fm3m,-3.677,0,0.887,169.849,10,7.563,cubic
mp-1114667,Rb2LiTmCl6,Fm3m,-2.456,0,5.28,282.028,10,3.294,cubic
mp-1205569,Ba2UInO6,Fm3m,-3.184,0,1.033,162.863,10,7.377,cubic
mp-1078802,LaVGe3,P63/mmc,-0.576,0,0,196.387,10,6.896,hexagonal
mp-1106293,EuZrO3,Pnma,-3.649,0,0.345,282.216,20,6.853,orthorhombic
mp-6183,Ba2PrRuO6,C2/m,-2.752,0,0.18,159.98,10,6.359,monoclinic
mp-1068661,ZrBRh3,Pm3m,-0.753,0,0,71.515,5,9.537,cubic
mp-1212755,Gd2ZnPtO6,P21/c,-2.608,0,0,245.301,20,9.084,monoclinic
mp-1105395,Ca2ScOsO6,P21/c,-2.9,0,0,246.123,20,5.55,monoclinic
mp-1097916,CsCaCl3,Pm3m,-2.632,0,5.383,163.544,5,2.836,cubic
mp-1214813,Ba2LuReO6,C2/m,-3.093,0,0,147.027,10,8.265,monoclinic
mp-18764,Ba2SrWO6,C2/m,-2.969,0,3.294,165.225,10,6.453,monoclinic
mp-19012,CaMoO3,Pnma,-2.688,0,1.154,251.704,20,4.856,orthorhombic
mp-1206894,Lu3AlC,Pm3m,-0.479,0,0.065,107.007,5,8.75,cubic
mp-6362,Sr2TbIrO6,P21/c,-2.768,0,0,284.546,20,7.264,monoclinic
mp-1205553,Sr2LuTaO6,Fm3m,-3.613,0,3.487,143.844,10,7.24,cubic
mp-1206443,La3SnC,Pm3m,-0.494,0,0,142.058,5,6.399,cubic
mp-998761,TlNiF3,Pm3m,-2.125,0,3.551,71.115,5,7.474,cubic
mp-1205597,Ba2TbMoO6,Fm3m,-3.069,0,0,155.173,10,6.694,cubic
mp-12410,Ba2TbIrO6,Fm3m,-2.78,0,0,151.583,10,7.907,cubic
mp-1206444,Cs3IO,P63/mmc,-1.386,0,1.514,440.266,10,4.086,hexagonal
mp-1209742,Pr2MgPtO6,P21/c,-2.856,0,2.053,253.914,20,7.811,monoclinic
mp-1207118,Ba2CdMoO6,Fm3m,-2.517,0,2.583,152.172,10,6.318,cubic
mp-1207079,SrH3Pd,Pm3m,-0.61,0,0,57.002,5,5.741,cubic
mp-1205665,Ba2EuRuO6,Fm3m,-2.633,0,0,154.028,10,6.724,cubic
mp-1206844,RbPaO3,Pm3m,-3.546,0,3.214,85.793,5,7.055,cubic
mp-1210924,LiTb2RuO6,P21/c,-2.875,0,0.331,233.942,20,7.408,monoclinic
mp-1213256,CsEuCl3,Pnma,-2.592,0,0,722.691,20,3.596,orthorhombic
mp-557448,Ba2CaUO6,P21/c,-3.56,0,2.198,337.154,20,6.39,monoclinic
mp-6270,Ba2LiReO6,Fm3m,-2.751,0,1.867,139.624,10,6.705,cubic
mp-20947,CaRuO3,Pnma,-2.224,0,0,235.307,20,5.339,orthorhombic
mp-1208762,Sr2MnTeO6,P21/c,-2.523,0,1.486,541.763,40,5.563,monoclinic
mp-1189906,Ca2CrSbO6,P21/c,-2.719,0,2.101,478.518,40,4.857,monoclinic
mp-1206861,Ba2ScReO6,Fm3m,-3.061,0,0,140.407,10,7.117,cubic
mp-12449,LiPr2OsO6,P21/c,-2.781,0,0,253.511,20,7.532,monoclinic
mp-1206641,KTl2GaF6,Fm3m,-2.664,0,4.774,179.033,10,5.858,cubic
mp-1080041,Cs2NaBiCl6,Fm3m,-1.965,0,3.784,338.198,10,3.489,cubic
mp-1212757,EuCoO3,Pnma,-2.267,0,0,224.688,20,7.653,orthorhombic
mp-5878,KZnF3,Pm3m,-2.835,0,3.786,70.526,5,3.803,cubic
mp-998552,BaHfO3,Pm3m,-3.796,0,3.941,74.326,5,8.128,cubic
mp-1021504,Ba2NbFeO6,Fm3m,-2.953,0,1.748,277.267,20,6.221,cubic
mp-1214942,Ba4Ce(RuO4)3,C2/m,-2.557,0,0,917.376,60,6.433,monoclinic
mp-23480,Bi2WO6,Pca21,-1.958,0,1.922,517.934,36,8.949,orthorhombic
mp-1114671,Rb2NaScCl6,Fm3m,-2.393,0,3.949,291.249,10,2.575,cubic
mp-1214115,Ca2NbCrO6,P21/c,-3.128,0,2.702,477.665,40,4.464,monoclinic
mp-6428,Ba2YRuO6,Fm3m,-2.845,0,0.106,151.041,10,6.163,cubic
mp-22531,Ba2GdNbO6,I4/m,-3.433,0,2.702,158.542,10,6.502,tetragonal
mp-1206535,Cs2RbCuF6,Fm3m,-2.576,0,0.936,199.043,10,4.412,cubic
mp-1205674,Ba2ScOsO6,Fm3m,-2.89,0,0,140.552,10,7.158,cubic
mp-1205598,Ba2PuMnO6,Fm3m,-3.049,0,0,153.241,10,7.256,cubic
mp-1205837,Ba2HoMoO6,Fm3m,-3.09,0,0,152.885,10,6.859,cubic
mp-6167,Ba2NdNbO6,C2/m,-3.383,0,2.994,163.768,10,6.163,monoclinic
mp-1206970,KPaO3,Pm3m,-3.572,0,3.274,84.417,5,6.258,cubic
mp-1206047,Ba2LuUO6,Fm3m,-3.709,0,0.835,165.209,10,7.877,cubic
mp-1214633,Ba2LiTeO6,Fm3m,-2.392,0,0,144.842,10,5.792,cubic
mp-1213834,Cs3Sc2Br9,P63/mmc,-1.828,0,3.031,1092.242,28,3.672,hexagonal
mp-1206134,Ba2CdOsO6,Fm3m,-2.22,0,0,150.606,10,7.424,cubic
mp-1205649,LiSc(TlCl3)2,Fm3m,-1.987,0,3.824,261.431,10,4.277,cubic
mp-1206514,Mg3AsN,Pm3m,-0.811,0,1.335,76.392,5,3.518,cubic
mp-1078551,Ba2NdMoO6,P1,-3.032,0,1.107,161.711,10,6.272,triclinic
mp-4019,CaTiO3,Pnma,-3.567,0,2.305,229.15,20,3.94,orthorhombic
mp-1206026,Ba2DyMoO6,Fm3m,-3.08,0,0,153.814,10,6.791,cubic
mp-1206097,Ba2ZnMoO6,Fm3m,-2.582,0,2.411,139.91,10,6.314,cubic
mp-1078725,Ba2UZnO6,Fm3m,-3.186,0,1.809,153.534,10,7.291,cubic
mp-1189408,Sr2HoTaO6,P21/c,-3.621,0,3.829,288.022,20,7.116,monoclinic
mp-1207135,Gd3TlC,Pm3m,-0.419,0,0,124.311,5,9.192,cubic
mp-1213084,CsSrCl3,Pnma,-2.653,0,5.314,732.88,20,2.963,orthorhombic
mp-1205574,Cs2KScF6,Fm3m,-3.599,0,6.987,203.053,10,3.793,cubic
mp-1206644,Ba2ScNbO6,Fm3m,-3.486,0,2.572,144.717,10,5.835,cubic
mp-672373,La3Co4Sn13,Pm3n,-0.411,0,0,912.366,40,7.992,cubic
mp-1206292,Ba2ErUO6,Fm3m,-3.686,0,0.893,168.272,10,7.657,cubic
mp-1213246,Eu2NiRuO6,P21/c,-2.298,0,0,243.512,20,7.633,monoclinic
mp-1194135,Cs3Er2I9,P63/mmc,-1.498,0,2.89,1427.371,28,4.363,hexagonal
mp-1188853,CaTcO3,Pnma,-2.468,0,0,237.832,20,5.197,orthorhombic
mp-1112759,Cs2KInCl6,Fm3m,-2.032,0,3.601,347.132,10,3.025,cubic
mp-14551,Sr2CaUO6,P21/c,-3.586,0,2.211,312.879,20,5.831,monoclinic
mp-1111671,K2LiInF6,Fm3m,-3.044,0,5.304,148.041,10,3.521,cubic
mp-1205696,Cs2NaCrCl6,Fm3m,-2,0,1.379,286.979,10,3.203,cubic
mp-1205638,Cs3BrO,P63/mmc,-1.451,0,1.556,409.262,10,4.014,hexagonal
mp-1111927,K2LiCrF6,Fm3m,-3.168,0,4.168,133.67,10,3.12,cubic
mp-1205600,Ba2NdTaO6,C2/m,-3.504,0,3.509,162.397,10,7.115,monoclinic
mp-15889,Ba2LaIrO6,C2/m,-2.721,0,0,161.577,10,7.212,monoclinic
mp-1206773,TmRu3C,Pm3m,-0.262,0,0,71.089,5,11.309,cubic
mp-1206983,Ho3PbC,Pm3m,-0.55,0,0,116.783,5,10.152,cubic
mp-19281,LaCrO3,Pnma,-3.209,0,2.371,245.738,20,6.457,orthorhombic
mp-1205934,Ba2YbMoO6,Fm3m,-3.019,0,2.267,151.549,10,7.009,cubic
mp-1210954,LiSm2RuO6,P21/c,-2.793,0,0,241.106,20,6.952,monoclinic
mp-20921,Ba3MnNb2O9,P3m1,-3.138,0,1.75,878.752,60,6.022,trigonal
mp-1214916,Ba3InIr2O9,P63/mmc,-2.156,0,0,446.559,30,7.848,hexagonal
mp-7251,Ba2YNbO6,Fm3m,-3.458,0,2.856,157.07,10,5.841,cubic
mp-1212711,Gd2MgPtO6,P21/c,-2.896,0,2.033,242.974,20,8.61,monoclinic
mp-1205652,TlNiCl3,P63/mmc,-1.138,0,0.573,249.341,10,4.921,hexagonal
mp-1111150,K2LiCoF6,Fm3m,-2.788,0,2.628,130.483,10,3.284,cubic
mp-1207040,Ba2InOsO6,Fm3m,-2.33,0,0.445,145.034,10,7.736,cubic
mp-1211080,LiNd2RuO6,P21/c,-2.769,0,0,246.391,20,6.638,monoclinic
mp-1208643,SrHfS3,Pnma,-2.206,0,2.046,471.9,20,5.1,orthorhombic
mp-1111112,K2LiGaF6,Fm3m,-3.128,0,6.133,133.275,10,3.35,cubic
mp-13356,Ba2SrTeO6,R3,-2.74,0,3.147,164.749,10,5.905,trigonal
mp-1208761,Sr2SmTaO6,P21/c,-3.556,0,3.785,297.94,20,6.716,monoclinic
mp-1205549,Ba2GdTaO6,I4/m,-3.554,0,3.308,158.116,10,7.444,tetragonal
mp-1211270,KYbBr3,Pnma,-1.988,0,4.513,686.69,20,4.371,orthorhombic
mp-18744,Sr2ErMoO6,P21/c,-3.156,0,1.282,284.61,20,6.236,monoclinic
mp-562779,ErCoO3,Pnma,-2.715,0,1.458,206.786,20,8.807,orthorhombic
mp-1205833,Ba2NbRhO6,Fm3m,-2.745,0,0.933,138.59,10,6.787,cubic
mp-1207518,YbRhO3,Pnma,-2.29,0,0,226.373,20,9.505,orthorhombic
mp-1185383,Eu5Nb4O15,P3m1,-3.259,0,0,329.258,24,6.917,trigonal
mp-1207093,LuRu3C,Pm3m,-0.28,0,0,70.504,5,11.545,cubic
mp-1185576,CsYbI3,Pnma,-1.623,0,3.811,933.597,20,4.885,orthorhombic
mp-998762,MnTlF3,Pm3m,-2.619,0,3.108,80.408,5,6.532,cubic
mp-1205604,KVCl3,P63/mmc,-1.832,0,0.341,263.935,10,2.471,hexagonal
mp-1208776,Sr2ScTaO6,P21/c,-3.632,0,3.449,268.527,20,6.149,monoclinic
mp-1205672,KTl2CrF6,Fm3m,-2.702,0,3.795,180.165,10,5.658,cubic
mp-1206237,Ba2AgIO6,Fm3m,-1.887,0,0.127,157.358,10,6.389,cubic
mp-1206772,ThBRh3,Pm3m,-0.898,0,0,78.726,5,11.634,cubic
mp-1212708,Gd2NiPtO6,P21/c,-2.46,0,0,241.814,20,9.123,monoclinic
mp-1206990,Sm3SnN,Pm3m,-1.076,0,0,120.097,5,8.072,cubic
mp-1112992,Cs2NaCeF6,Fm3m,-3.538,0,0.457,206.486,10,4.366,cubic
mp-1213022,ErRhO3,Pnma,-2.611,0,0.996,232.862,20,9.075,orthorhombic
mp-1214658,Ba6Na2V2Sb2O17,P63/mmc,-2.734,0,3.199,951.817,58,5.19,hexagonal
mp-1211643,KCaCl3,Pnma,-2.601,0,5.565,587.947,20,2.096,orthorhombic
mp-1206912,Lu3GaC,Pm3m,-0.543,0,0.094,105.178,5,9.577,cubic
mp-1114347,KRb2AlF6,Fm3m,-3.447,0,6.428,172.209,10,3.385,cubic
mp-1206320,RbScCl3,P63/mmc,-2.291,0,0,288.023,10,2.73,hexagonal
mp-1078303,Ba2YOsO6,Fm3m,-2.876,0,0.073,151.77,10,7.109,cubic
mp-1207629,YRhO3,Pnma,-2.57,0,0.813,236.233,20,6.743,orthorhombic
mp-1070599,CsYbCl3,Pm3m,-2.689,0,5.385,159.725,5,4.286,cubic
mp-1079630,Ba2TaInO6,Fm3m,-3.086,0,4.052,148.172,10,7.468,cubic
mp-1206645,Sr2TiMnO6,I4/m,-3.039,0,0.988,236.332,20,5.256,tetragonal
mp-22942,BaBiO3,C2/m,-2.243,0,0,172.722,10,7.582,monoclinic
mp-1214109,Ca2YbRuO6,P21/c,-2.662,0,0,258.066,20,5.794,monoclinic
mp-19802,TbCoO3,Pnma,-2.684,0,1.422,211.848,20,8.336,orthorhombic
mp-1214573,Ba2PrBiO6,C2/m,-2.757,0,1.942,175.088,10,6.834,monoclinic
mp-12448,LiSm2OsO6,P21/c,-2.852,0,0.396,244.312,20,8.073,monoclinic
mp-6739,Ba2CaOsO6,Fm3m,-2.682,0,0,150.889,10,6.614,cubic
mp-1205693,Ba2DyUO6,Fm3m,-3.667,0,0.882,170.547,10,7.509,cubic
mp-1112690,Cs2KYCl6,Fm3m,-2.507,0,5.215,366.011,10,2.752,cubic
mp-1206768,Rb2NaVCl6,Fm3m,-2.017,0,0,275.474,10,2.758,cubic
mp-1214536,Ba3HoRu2O9,P63/mmc,-2.649,0,0,447.609,30,6.849,hexagonal
mp-4243,CaIrO3,Cmcm,-2.112,0,0,117.135,10,7.947,orthorhombic
mp-998786,TlPdF3,Pm3m,-1.714,0,0,82.385,5,7.413,cubic
mp-656144,BaEuFe2O5,P4/mmm,-2.499,0,0,122.977,9,6.495,tetragonal
mp-20090,PrCoO3,Pnma,-2.562,0,1.134,233.894,20,7.038,orthorhombic
mp-6254,Ba2TbNbO6,I4/m,-3.461,0,2.992,157.184,10,6.576,tetragonal
mp-1209238,RbCaBr3,Pnma,-1.965,0,4.626,723.127,20,3.355,orthorhombic
mp-1212884,DyRhO3,Pnma,-2.598,0,0.912,236.13,20,8.816,orthorhombic
mp-1080847,Mg3SbN,Pm3m,-0.688,0,0.699,83.886,5,4.131,cubic
mp-1207074,Gd3SnC,Pm3m,-0.611,0,0,121.557,5,8.23,cubic
mp-1214484,Ba3TmRu2O9,P63/mmc,-2.663,0,0,443.261,30,6.946,hexagonal
mp-1112567,Cs2NaTmCl6,Fm3m,-2.495,0,5.452,319.287,10,3.487,cubic
mp-984788,Ba4Er(RuO4)3,R3m,-2.54,0,0,298.109,20,6.75,trigonal
mp-1112785,Cs2KDyCl6,Fm3m,-2.509,0,5.239,365.082,10,3.093,cubic
mp-1069296,Eu3InO,Pm3m,-1.455,0,0,122.077,5,7.981,cubic
mp-1189927,EuZrS3,Pnma,-2.176,0,0,470.145,20,4.795,orthorhombic
mp-1207169,CaH3Pd,Pm3m,-0.609,0,0,51.773,5,4.796,cubic
mp-1209329,PrVO3,Pnma,-3.211,0,1.302,249.414,20,6.387,orthorhombic
mp-1112689,Cs2KTmCl6,Fm3m,-2.513,0,5.259,358.566,10,3.18,cubic
mp-1211045,LiGd2RuO6,P21/c,-2.839,0,0.199,239.165,20,7.2,monoclinic
mp-1206909,CaBPd3,Pm3m,-0.557,0,0,80.06,5,7.677,cubic
mp-1206922,Ce3SnN,Pm3m,-1.057,0,0,117.321,5,7.828,cubic
mp-687081,YbCoO3,Pnma,-2.21,0,0,206.557,20,9.003,orthorhombic
mp-1207213,K2LiCuF6,Fm3m,-2.628,0,0.908,132.845,10,3.283,cubic
mp-23127,Ba2BiSbO6,C2/m,-2.463,0,1.926,162.478,10,7.168,monoclinic
mp-1210555,Mn3SnH,Pm3m,-0.029,0,0,57.424,5,8.228,cubic
mp-1214121,Ca2NbFeO6,P21/c,-3,0,2.099,483.833,40,4.46,monoclinic
mp-1078258,Cs2AgBiCl6,Fm3m,-1.696,0,2.114,328.966,10,4.015,cubic
mp-1206427,KRb2CuF6,Fm3m,-2.585,0,0.93,176.793,10,3.64,cubic
mp-1079458,Cs2NaCeCl6,Fm3m,-2.456,0,0.422,343.033,10,3.106,cubic
mp-1205671,Ba2TaFeO6,Fm3m,-3.064,0,1.862,275.902,20,7.312,cubic
mp-1206123,AlFe3H,Pm3m,-0.201,0,0,49.942,5,6.501,cubic
mp-1214125,Ca2ScNbO6,P21/c,-3.519,0,3.143,251.878,20,4.14,monoclinic
mp-1208760,Sr2ScNbO6,P21/c,-3.51,0,2.94,270.563,20,5.022,monoclinic
mp-1106374,LaLuS3,Pnma,-2.538,0,2.232,485.351,20,5.612,orthorhombic
mp-1079871,Cs2KSmCl6,Fm3m,-2.494,0,5.178,377.012,10,2.942,cubic
mp-1206878,Tb3GaC,Pm3m,-0.417,0,0.012,116.636,5,7.951,cubic
mp-3187,BaCeO3,Pnma,-3.6,0,2.229,352.113,20,6.139,orthorhombic
mp-1206820,HoRu3C,Pm3m,-0.231,0,0,71.696,5,11.121,cubic
mp-1214561,Ba2TbWO6,C2/m,-3.141,0,1.717,156.336,10,7.578,monoclinic
mp-1205845,Ba2GdUO6,Fm3m,-3.628,0,0.857,174.355,10,7.295,cubic
mp-1206763,Ba2ScUO6,Fm3m,-3.685,0,0.85,157.443,10,6.894,cubic
mp-1214081,Ca2ScTaO6,P21/c,-3.64,0,3.733,250.767,20,5.325,monoclinic
mp-1207069,Ba2PuZnO6,Fm3m,-2.92,0,0.66,150.762,10,7.49,cubic
mp-1214014,Cs2NaUBr6,Pa3,-1.599,0,0.52,1596.347,40,4.187,cubic
mp-1105546,LaFe4(CuO4)3,Im3,-1.786,0,0,211.681,20,5.844,cubic
mp-1095170,Sr2FeOsO6,Fm3m,-2.39,0,0,252.316,20,6.809,cubic
mp-1207064,Ba2TbTaO6,I4/m,-3.582,0,3.513,155.778,10,7.574,tetragonal
mp-1214660,Ba4Nd(IrO4)3,C2/m,-2.381,0,0,312.595,20,7.767,monoclinic
mp-1206536,Ba2InSbO6,Fm3m,-2.546,0,0.524,147.913,10,6.817,cubic
mp-1078995,Sr2MgTeO6,C2/m,-2.729,0,2.341,129.158,10,5.44,monoclinic
mp-1205507,Eu2MgWO6,Fm3m,-2.933,0,0.277,128.33,10,7.868,cubic
mp-1207052,Sr2CrWO6,Fm3m,-2.768,0,0,255.779,20,6.584,cubic
mp-6798,Ba2NaReO6,Fm3m,-2.701,0,1.917,149.306,10,6.449,cubic
mp-1105549,BaHfS3,Pnma,-2.234,0,1.749,497.723,20,5.498,orthorhombic
mp-1078539,Sr2MgMoO6,I4/m,-2.907,0,2.365,127.845,10,5.085,tetragonal
mp-1207104,Cs2KHoCl6,Fm3m,-2.511,0,5.261,361.762,10,3.133,cubic
mp-2955,NaMgF3,Pnma,-3.52,0,6.754,234.873,20,2.949,orthorhombic
mp-3448,KMgF3,Pm3m,-3.566,0,6.954,66.6,5,3.002,cubic
mp-1205803,Ba2ErTaO6,Fm3m,-3.611,0,3.393,153.532,10,7.775,cubic
mp-1213003,Eu2CoPtO6,P21/c,-2.245,0,0,246.057,20,8.826,monoclinic
mp-1214640,Ba3CeIr2O9,P63/mmc,-2.592,0,0,458.45,30,7.827,hexagonal
mp-1205713,Ba2YUO6,Fm3m,-3.656,0,0.879,171.726,10,6.745,cubic
mp-1209523,Rb3Sc2Br9,P63/mmc,-1.786,0,2.929,1005.413,28,3.519,hexagonal
mp-1079705,Ba2LuTaO6,Fm3m,-3.636,0,3.409,150.501,10,8.016,cubic
mp-1206133,Ba2MgOsO6,Fm3m,-2.612,0,0,136.578,10,7.115,cubic
mp-1214562,Ba3PrIr2O9,P63/mmc,-2.477,0,0,473.046,30,7.592,hexagonal
mp-1205947,Eu2TaAlO6,Fm3m,-3.452,0,0.373,120.624,10,8.368,cubic
mp-550685,Ba2CaTeO6,Fm3m,-2.797,0,3.012,154,10,5.805,cubic
mp-12385,Ba2YTaO6,I4/m,-3.582,0,3.466,155.508,10,6.839,tetragonal
mp-1205977,Ba2ErReO6,Fm3m,-3.069,0,0,150.212,10,8.005,cubic
mp-1209751,Pr2MnNiO6,P21/c,-2.72,0,1.791,238.096,20,6.855,monoclinic
mp-557755,Ba3Cr2MoO9,P63/mmc,-2.724,0,0,414.554,30,6.056,hexagonal
mp-1084823,Sr2CrSbO6,C2/m,-2.685,0,1.858,127.787,10,5.783,monoclinic
mp-1205686,Ba2PrTaO6,C2/m,-3.485,0,3.494,164.228,10,7.002,monoclinic
mp-1113058,Cs2KErCl6,Fm3m,-2.512,0,5.251,361.032,10,3.15,cubic
mp-1205690,Sr2NbCrO6,Fm3m,-3.115,0,2.306,515.096,40,5.366,cubic
mp-553281,Ba2LaNbO6,C2/m,-3.397,0,3.049,166.576,10,6.006,monoclinic
mp-1205944,Sr2TaVO6,I4/m,-3.281,0,0,257.714,20,6.484,tetragonal
mp-1206029,Ba2TmTaO6,Fm3m,-3.624,0,3.407,151.821,10,7.881,cubic
mp-1206059,Rb2NaCrCl6,Fm3m,-1.979,0,1.403,272.943,10,2.79,cubic
mp-1207130,Ba2SmUO6,Fm3m,-3.605,0,0.862,177.062,10,7.119,cubic
mp-1214461,Ba4Li(BiO4)3,Im3m,-2.206,0,0.169,322.22,20,7.087,cubic
mp-1214664,Ba6Na2Ta2V2O17,P63/mmc,-3.086,0,3.086,949.535,58,5.616,hexagonal
mp-1069270,ZnNi3N,Pm3m,-0.226,0,0,53.179,5,7.978,cubic
mp-1205758,Ba2EuMoO6,Fm3m,-2.91,0,0.055,161.764,10,6.35,cubic
mp-1206176,Rb2NaCuF6,Fm3m,-2.595,0,0.783,154.876,10,3.983,cubic
mp-1205595,Ba2TmMoO6,Fm3m,-3.111,0,0,150.726,10,7.002,cubic
mp-1207285,Ba2GdReO6,Fm3m,-3.011,0,0,154.488,10,7.676,cubic
mp-1213104,CsSrBr3,Pnma,-2.03,0,4.558,844.87,20,3.618,orthorhombic
mp-1111106,K2NaGaF6,Fm3m,-3.105,0,5.952,148.417,10,3.188,cubic
mp-1214103,Ca2TaCrO6,P21/c,-3.246,0,2.818,477.109,40,5.695,monoclinic
mp-1205557,Ba2UTiO6,Fm3m,-3.518,0,0,151.362,10,7.203,cubic
mp-1206994,La3SnN,Pm3m,-1.083,0,0,133.829,5,6.817,cubic
mp-1205676,NaSr2OsO6,Fm3m,-2.347,0,0,137.125,10,5.867,cubic
mp-1206822,Pr3SnN,Pm3m,-0.997,0,0,129.614,5,7.116,cubic
mp-1205700,Ba2LaUO6,Fm3m,-3.577,0,0.861,183.864,10,6.752,cubic
mp-1212108,HoRhO3,Pnma,-2.605,0,0.965,233.798,20,8.973,orthorhombic
mp-1205628,Ba2ErMoO6,Fm3m,-3.099,0,0,151.47,10,6.949,cubic
mp-1205823,Ba2ScTaO6,Fm3m,-3.603,0,3.017,143.716,10,6.893,cubic
mp-1114421,Rb2LiLuCl6,Fm3m,-2.455,0,5.268,279.505,10,3.36,cubic
mp-1206911,ErRu3C,Pm3m,-0.246,0,0,71.497,5,11.206,cubic
mp-1208881,Sr2CaSbO6,P21/c,-2.751,0,0,295.681,20,4.864,monoclinic
mp-1194656,MnPb2WO6,Pnma,-1.928,0,1.72,572.814,40,8.687,orthorhombic
mp-1209786,Nd2MgPtO6,P21/c,-2.872,0,2.068,250.781,20,7.997,monoclinic
mp-14552,Ba2SrUO6,P21/c,-3.519,0,2.313,358.638,20,6.448,monoclinic
mp-1206266,K2NaCrCl6,Fm3m,-1.954,0,1.417,263.31,10,2.308,cubic
mp-19339,LaNiO3,R3c,-2.406,0,0,117.617,10,6.935,trigonal
mp-1113049,Cs2KGdCl6,Fm3m,-2.502,0,3.144,370.782,10,3.022,cubic
mp-1205683,Cs2KCrCl6,Fm3m,-2.031,0,1.597,318.265,10,2.972,cubic
mp-1205759,Ba2YbUO6,Fm3m,-3.604,0,2.171,167.564,10,7.747,cubic
mp-1206127,CeRu3C,Pm3m,-0.242,0,0,73.344,5,10.309,cubic
mp-1207078,CaNiH3,Pm3m,-0.548,0,0,44.275,5,3.818,cubic
mp-1079893,BaTiSe3,P63/mmc,-1.487,0,0,266.545,10,5.259,hexagonal
mp-1205512,KBa2IO6,Fm3m,-2.147,0,2.779,167.234,10,5.329,cubic
mp-1205691,Ba2ZnOsO6,Fm3m,-2.304,0,0,137.471,10,7.565,cubic
mp-12417,Ba2CaReO6,I4/m,-2.926,0,0,152.09,10,6.517,tetragonal
mp-19098,Ba2CaWO6,C2/m,-3.034,0,3.324,154.804,10,6.378,monoclinic
mp-1111916,K2NaTiF6,Fm3m,-3.332,0,0,154.146,10,2.834,cubic
mp-1114456,Rb2NaScF6,Fm3m,-3.596,0,6.908,167.427,10,3.5,cubic
mp-1209351,Pr2ZnPtO6,P21/c,-2.571,0,1.665,257.797,20,8.223,monoclinic
mp-1205650,Ba2TaTlO6,Fm3m,-2.826,0,2.463,155.145,10,8.091,cubic
mp-561170,Ba3ZrRu2O9,P63/mmc,-2.687,0,0,433.797,30,6.502,hexagonal
mp-1205669,Ba2YMoO6,Fm3m,-3.068,0,0,154.211,10,5.982,cubic
mp-1211320,KRb2InF6,P21/c,-3.024,0,5.332,398.539,20,3.657,monoclinic
mp-1207120,Ba2LiIO6,Fm3m,-2.244,0,2.078,143.358,10,5.844,cubic
mp-1207705,TmRhO3,Pnma,-2.624,0,0.956,229.41,20,9.26,orthorhombic
mp-1212655,Gd2MnNiO6,P21/c,-2.774,0,1.868,230.466,20,7.553,monoclinic
mp-1214487,Ba3ZnSb2O9,P63/mmc,-2.501,0,1.96,449.293,30,6.393,hexagonal
mp-23329,Bi2WO6,Aea2,-1.958,0,1.954,261.062,18,8.877,orthorhombic
mp-550081,Ba2LaIrO6,R3,-2.721,0,0,161.376,10,7.221,trigonal
mp-23091,Ba2BiSbO6,R3,-2.462,0,1.984,162.475,10,7.168,trigonal
mp-6635,Ba2CaReO6,Fm3m,-2.926,0,0,152.077,10,6.518,cubic
mp-1114566,Rb2LiErCl6,Fm3m,-2.455,0,5.192,284.748,10,3.253,cubic
mp-1206863,CsCaCl3,I4/mcm,-2.632,0,5.614,325.993,10,2.846,tetragonal
mp-559051,BaBiO3,P21/c,-2.243,0,0.077,345.397,20,7.583,monoclinic
mp-1211648,KCaBr3,Pnma,-1.954,0,4.593,699.752,20,3.027,orthorhombic
mp-1205684,KScTl2F6,Fm3m,-3.153,0,4.848,192.77,10,5.227,cubic
mp-1214135,Ca2TaInO6,P21/c,-3.124,0,3.849,257.93,20,6.076,monoclinic
mp-1206817,TlVCl3,P63/mmc,-1.456,0.001,0.277,268.553,10,4.473,hexagonal
mp-1208834,Sr2CrSbO6,I4/m,-2.684,0.001,1.877,510.112,40,5.794,tetragonal
mp-22390,SrRuO3,Pnma,-2.176,0.001,0,251.985,20,6.239,orthorhombic
mp-19078,Ba2SrWO6,R3,-2.968,0.001,3.397,166.341,10,6.41,trigonal
mp-1078250,Cs2AgBiBr6,Fm3m,-1.139,0.001,1.621,379.059,10,4.653,cubic
mp-23482,BaBiO3,R3,-2.242,0.001,0.079,172.409,10,7.595,trigonal
mp-6613,Ba2YTaO6,Fm3m,-3.58,0.002,3.362,155.961,10,6.82,cubic
mp-18965,BaCoO3,P63/mmc,-2.106,0.002,0,273.071,20,5.941,hexagonal
mp-1207065,Ba2TbTaO6,Fm3m,-3.58,0.002,3.371,156.807,10,7.524,cubic
mp-1205883,Rb2LiHoCl6,Fm3m,-2.453,0.002,5.119,283.14,10,3.258,cubic
mp-19182,Ba2CaWO6,I4/m,-3.031,0.002,3.204,154.903,10,6.374,tetragonal
mp-1080123,Ba2LaIrO6,Fm3m,-2.719,0.002,0,162.062,10,7.191,cubic
mp-18977,Ba2CaWO6,Fm3m,-3.031,0.003,3.2,154.818,10,6.377,cubic
mp-1208733,Sr2TaCoO6,Fm3m,-2.926,0.003,1.55,510.721,40,6.647,cubic